4800
Lattice="179.5 0.0 0.0 0.0 93.77499074759311 0.0 0.0 0.0 10.0" Properties=species:S:1:pos:R:3:masses:R:1:fix:L:1:stokes:R:1:forces:R:3 stress="0.0004408976758136827 6.518751166687693e-21 0.0 6.518751166687693e-21 0.0013790131434239569 0.0 0.0 0.0 0.0" cell_origin="-89.75 -46.887495373796554 0.0" E_G=0.005000000000000009 pbc="T T T" OrigHeight=33.77499074759311 energy=0.6023234255011576 eps_G=0.02102733914937162
H     -59.75000000     -17.45565392       5.00000000       1.00000000  T       1.00000000      -0.00000000       0.00000000       0.00000000 
H     -59.25000000     -16.58962852       5.00000000       1.00000000  F       0.90000000      -0.00000000       0.00000000       0.00000000 
H     -59.75000000     -15.72360311       5.00000000       1.00000000  F       1.00000000      -0.00000000       0.00000000       0.00000000 
H     -59.25000000     -14.85757771       5.00000000       1.00000000  F       0.90000000      -0.00000000      -0.00000000       0.00000000 
H     -59.75000000     -13.99155231       5.00000000       1.00000000  F       1.00000000      -0.00000000      -0.00000000       0.00000000 
H     -59.25000000     -13.12552690       5.00000000       1.00000000  F       0.90000000      -0.00000000       0.00000000       0.00000000 
H     -59.75000000     -12.25950150       5.00000000       1.00000000  F       1.00000000      -0.00000000      -0.00000000       0.00000000 
H     -59.25000000     -11.39347610       5.00000000       1.00000000  F       0.90000000      -0.00000000       0.00000000       0.00000000 
H     -59.75000000     -10.52745069       5.00000000       1.00000000  F       1.00000000      -0.00000000      -0.00000000       0.00000000 
H     -59.25000000      -9.66142529       5.00000000       1.00000000  F       0.90000000      -0.00000000       0.00000000       0.00000000 
H     -59.75000000      -8.79539988       5.00000000       1.00000000  F       1.00000000      -0.00000000       0.00000000       0.00000000 
H     -59.25000000      -7.92937448       5.00000000       1.00000000  F       0.90000000      -0.00000000      -0.00000000       0.00000000 
H     -59.75000000      -7.06334908       5.00000000       1.00000000  F       1.00000000      -0.00000000      -0.00000000       0.00000000 
H     -59.25000000      -6.19732367       5.00000000       1.00000000  F       0.90000000      -0.00000000      -0.00000000       0.00000000 
H     -59.75000000      -5.33129827       5.00000000       1.00000000  F       1.00000000      -0.00000000       0.00000000       0.00000000 
H     -59.25000000      -4.46527287       5.00000000       1.00000000  F       0.90000000      -0.00000000      -0.00000000       0.00000000 
H     -59.75000000      -3.59924746       5.00000000       1.00000000  F       1.00000000      -0.00000000       0.00000000       0.00000000 
H     -59.25000000      -2.73322206       5.00000000       1.00000000  F       0.90000000      -0.00000000      -0.00000000       0.00000000 
H     -59.75000000      -1.86719665       5.00000000       1.00000000  F       1.00000000      -0.00000000       0.00000000       0.00000000 
H     -59.25000000      -1.00117125       5.00000000       1.00000000  F       0.90000000      -0.00000000      -0.00000000       0.00000000 
H     -59.75000000       1.00117125       5.00000000       1.00000000  F       1.00000000      -0.00000000      -0.00000000       0.00000000 
H     -59.25000000       1.86719665       5.00000000       1.00000000  F       0.90000000      -0.00000000       0.00000000       0.00000000 
H     -59.75000000       2.73322206       5.00000000       1.00000000  F       1.00000000      -0.00000000      -0.00000000       0.00000000 
H     -59.25000000       3.59924746       5.00000000       1.00000000  F       0.90000000      -0.00000000       0.00000000       0.00000000 
H     -59.75000000       4.46527287       5.00000000       1.00000000  F       1.00000000      -0.00000000      -0.00000000       0.00000000 
H     -59.25000000       5.33129827       5.00000000       1.00000000  F       0.90000000      -0.00000000       0.00000000       0.00000000 
H     -59.75000000       6.19732367       5.00000000       1.00000000  F       1.00000000      -0.00000000      -0.00000000       0.00000000 
H     -59.25000000       7.06334908       5.00000000       1.00000000  F       0.90000000      -0.00000000       0.00000000       0.00000000 
H     -59.75000000       7.92937448       5.00000000       1.00000000  F       1.00000000      -0.00000000      -0.00000000       0.00000000 
H     -59.25000000       8.79539988       5.00000000       1.00000000  F       0.90000000      -0.00000000       0.00000000       0.00000000 
H     -59.75000000       9.66142529       5.00000000       1.00000000  F       1.00000000      -0.00000000      -0.00000000       0.00000000 
H     -59.25000000      10.52745069       5.00000000       1.00000000  F       0.90000000      -0.00000000       0.00000000       0.00000000 
H     -59.75000000      11.39347610       5.00000000       1.00000000  F       1.00000000      -0.00000000      -0.00000000       0.00000000 
H     -59.25000000      12.25950150       5.00000000       1.00000000  F       0.90000000      -0.00000000       0.00000000       0.00000000 
H     -59.75000000      13.12552690       5.00000000       1.00000000  F       1.00000000      -0.00000000      -0.00000000       0.00000000 
H     -59.25000000      13.99155231       5.00000000       1.00000000  F       0.90000000      -0.00000000       0.00000000       0.00000000 
H     -59.75000000      14.85757771       5.00000000       1.00000000  F       1.00000000      -0.00000000       0.00000000       0.00000000 
H     -59.25000000      15.72360311       5.00000000       1.00000000  F       0.90000000      -0.00000000      -0.00000000       0.00000000 
H     -59.75000000      16.58962852       5.00000000       1.00000000  F       1.00000000      -0.00000000       0.00000000       0.00000000 
H     -59.25000000      17.45565392       5.00000000       1.00000000  T       0.90000000      -0.00000000      -0.00000000       0.00000000 
H     -58.75000000     -17.45565392       5.00000000       1.00000000  T       0.80000000       0.00000000       0.00000000       0.00000000 
H     -58.25000000     -16.58962852       5.00000000       1.00000000  F       0.70000000       0.00000000       0.00000000       0.00000000 
H     -58.75000000     -15.72360311       5.00000000       1.00000000  F       0.80000000       0.00000000       0.00000000       0.00000000 
H     -58.25000000     -14.85757771       5.00000000       1.00000000  F       0.70000000       0.00000000      -0.00000000       0.00000000 
H     -58.75000000     -13.99155231       5.00000000       1.00000000  F       0.80000000       0.00000000      -0.00000000       0.00000000 
H     -58.25000000     -13.12552690       5.00000000       1.00000000  F       0.70000000       0.00000000       0.00000000       0.00000000 
H     -58.75000000     -12.25950150       5.00000000       1.00000000  F       0.80000000       0.00000000      -0.00000000       0.00000000 
H     -58.25000000     -11.39347610       5.00000000       1.00000000  F       0.70000000       0.00000000       0.00000000       0.00000000 
H     -58.75000000     -10.52745069       5.00000000       1.00000000  F       0.80000000       0.00000000      -0.00000000       0.00000000 
H     -58.25000000      -9.66142529       5.00000000       1.00000000  F       0.70000000       0.00000000       0.00000000       0.00000000 
H     -58.75000000      -8.79539988       5.00000000       1.00000000  F       0.80000000       0.00000000       0.00000000       0.00000000 
H     -58.25000000      -7.92937448       5.00000000       1.00000000  F       0.70000000       0.00000000      -0.00000000       0.00000000 
H     -58.75000000      -7.06334908       5.00000000       1.00000000  F       0.80000000       0.00000000       0.00000000       0.00000000 
H     -58.25000000      -6.19732367       5.00000000       1.00000000  F       0.70000000       0.00000000      -0.00000000       0.00000000 
H     -58.75000000      -5.33129827       5.00000000       1.00000000  F       0.80000000       0.00000000       0.00000000       0.00000000 
H     -58.25000000      -4.46527287       5.00000000       1.00000000  F       0.70000000       0.00000000      -0.00000000       0.00000000 
H     -58.75000000      -3.59924746       5.00000000       1.00000000  F       0.80000000       0.00000000       0.00000000       0.00000000 
H     -58.25000000      -2.73322206       5.00000000       1.00000000  F       0.70000000       0.00000000      -0.00000000       0.00000000 
H     -58.75000000      -1.86719665       5.00000000       1.00000000  F       0.80000000       0.00000000       0.00000000       0.00000000 
H     -58.25000000      -1.00117125       5.00000000       1.00000000  F       0.70000000       0.00000000      -0.00000000       0.00000000 
H     -58.75000000       1.00117125       5.00000000       1.00000000  F       0.80000000       0.00000000       0.00000000       0.00000000 
H     -58.25000000       1.86719665       5.00000000       1.00000000  F       0.70000000       0.00000000       0.00000000       0.00000000 
H     -58.75000000       2.73322206       5.00000000       1.00000000  F       0.80000000       0.00000000      -0.00000000       0.00000000 
H     -58.25000000       3.59924746       5.00000000       1.00000000  F       0.70000000       0.00000000       0.00000000       0.00000000 
H     -58.75000000       4.46527287       5.00000000       1.00000000  F       0.80000000       0.00000000      -0.00000000       0.00000000 
H     -58.25000000       5.33129827       5.00000000       1.00000000  F       0.70000000       0.00000000       0.00000000       0.00000000 
H     -58.75000000       6.19732367       5.00000000       1.00000000  F       0.80000000       0.00000000       0.00000000       0.00000000 
H     -58.25000000       7.06334908       5.00000000       1.00000000  F       0.70000000       0.00000000       0.00000000       0.00000000 
H     -58.75000000       7.92937448       5.00000000       1.00000000  F       0.80000000       0.00000000      -0.00000000       0.00000000 
H     -58.25000000       8.79539988       5.00000000       1.00000000  F       0.70000000       0.00000000       0.00000000       0.00000000 
H     -58.75000000       9.66142529       5.00000000       1.00000000  F       0.80000000       0.00000000      -0.00000000       0.00000000 
H     -58.25000000      10.52745069       5.00000000       1.00000000  F       0.70000000       0.00000000       0.00000000       0.00000000 
H     -58.75000000      11.39347610       5.00000000       1.00000000  F       0.80000000       0.00000000      -0.00000000       0.00000000 
H     -58.25000000      12.25950150       5.00000000       1.00000000  F       0.70000000       0.00000000       0.00000000       0.00000000 
H     -58.75000000      13.12552690       5.00000000       1.00000000  F       0.80000000       0.00000000      -0.00000000       0.00000000 
H     -58.25000000      13.99155231       5.00000000       1.00000000  F       0.70000000       0.00000000       0.00000000       0.00000000 
H     -58.75000000      14.85757771       5.00000000       1.00000000  F       0.80000000       0.00000000       0.00000000       0.00000000 
H     -58.25000000      15.72360311       5.00000000       1.00000000  F       0.70000000       0.00000000      -0.00000000       0.00000000 
H     -58.75000000      16.58962852       5.00000000       1.00000000  F       0.80000000       0.00000000       0.00000000       0.00000000 
H     -58.25000000      17.45565392       5.00000000       1.00000000  T       0.70000000       0.00000000      -0.00000000       0.00000000 
H     -57.75000000     -17.45565392       5.00000000       1.00000000  T       0.60000000       0.00000000       0.00000000       0.00000000 
H     -57.25000000     -16.58962852       5.00000000       1.00000000  F       0.50000000       0.00000000       0.00000000       0.00000000 
H     -57.75000000     -15.72360311       5.00000000       1.00000000  F       0.60000000       0.00000000       0.00000000       0.00000000 
H     -57.25000000     -14.85757771       5.00000000       1.00000000  F       0.50000000       0.00000000      -0.00000000       0.00000000 
H     -57.75000000     -13.99155231       5.00000000       1.00000000  F       0.60000000       0.00000000      -0.00000000       0.00000000 
H     -57.25000000     -13.12552690       5.00000000       1.00000000  F       0.50000000       0.00000000       0.00000000       0.00000000 
H     -57.75000000     -12.25950150       5.00000000       1.00000000  F       0.60000000       0.00000000      -0.00000000       0.00000000 
H     -57.25000000     -11.39347610       5.00000000       1.00000000  F       0.50000000       0.00000000       0.00000000       0.00000000 
H     -57.75000000     -10.52745069       5.00000000       1.00000000  F       0.60000000       0.00000000      -0.00000000       0.00000000 
H     -57.25000000      -9.66142529       5.00000000       1.00000000  F       0.50000000       0.00000000       0.00000000       0.00000000 
H     -57.75000000      -8.79539988       5.00000000       1.00000000  F       0.60000000       0.00000000       0.00000000       0.00000000 
H     -57.25000000      -7.92937448       5.00000000       1.00000000  F       0.50000000       0.00000000      -0.00000000       0.00000000 
H     -57.75000000      -7.06334908       5.00000000       1.00000000  F       0.60000000       0.00000000       0.00000000       0.00000000 
H     -57.25000000      -6.19732367       5.00000000       1.00000000  F       0.50000000       0.00000000      -0.00000000       0.00000000 
H     -57.75000000      -5.33129827       5.00000000       1.00000000  F       0.60000000       0.00000000       0.00000000       0.00000000 
H     -57.25000000      -4.46527287       5.00000000       1.00000000  F       0.50000000       0.00000000      -0.00000000       0.00000000 
H     -57.75000000      -3.59924746       5.00000000       1.00000000  F       0.60000000       0.00000000       0.00000000       0.00000000 
H     -57.25000000      -2.73322206       5.00000000       1.00000000  F       0.50000000       0.00000000      -0.00000000       0.00000000 
H     -57.75000000      -1.86719665       5.00000000       1.00000000  F       0.60000000       0.00000000       0.00000000       0.00000000 
H     -57.25000000      -1.00117125       5.00000000       1.00000000  F       0.50000000       0.00000000      -0.00000000       0.00000000 
H     -57.75000000       1.00117125       5.00000000       1.00000000  F       0.60000000       0.00000000       0.00000000       0.00000000 
H     -57.25000000       1.86719665       5.00000000       1.00000000  F       0.50000000       0.00000000       0.00000000       0.00000000 
H     -57.75000000       2.73322206       5.00000000       1.00000000  F       0.60000000       0.00000000      -0.00000000       0.00000000 
H     -57.25000000       3.59924746       5.00000000       1.00000000  F       0.50000000       0.00000000       0.00000000       0.00000000 
H     -57.75000000       4.46527287       5.00000000       1.00000000  F       0.60000000       0.00000000      -0.00000000       0.00000000 
H     -57.25000000       5.33129827       5.00000000       1.00000000  F       0.50000000       0.00000000       0.00000000       0.00000000 
H     -57.75000000       6.19732367       5.00000000       1.00000000  F       0.60000000       0.00000000       0.00000000       0.00000000 
H     -57.25000000       7.06334908       5.00000000       1.00000000  F       0.50000000       0.00000000       0.00000000       0.00000000 
H     -57.75000000       7.92937448       5.00000000       1.00000000  F       0.60000000       0.00000000      -0.00000000       0.00000000 
H     -57.25000000       8.79539988       5.00000000       1.00000000  F       0.50000000       0.00000000       0.00000000       0.00000000 
H     -57.75000000       9.66142529       5.00000000       1.00000000  F       0.60000000       0.00000000      -0.00000000       0.00000000 
H     -57.25000000      10.52745069       5.00000000       1.00000000  F       0.50000000       0.00000000       0.00000000       0.00000000 
H     -57.75000000      11.39347610       5.00000000       1.00000000  F       0.60000000       0.00000000      -0.00000000       0.00000000 
H     -57.25000000      12.25950150       5.00000000       1.00000000  F       0.50000000       0.00000000       0.00000000       0.00000000 
H     -57.75000000      13.12552690       5.00000000       1.00000000  F       0.60000000       0.00000000      -0.00000000       0.00000000 
H     -57.25000000      13.99155231       5.00000000       1.00000000  F       0.50000000       0.00000000       0.00000000       0.00000000 
H     -57.75000000      14.85757771       5.00000000       1.00000000  F       0.60000000       0.00000000       0.00000000       0.00000000 
H     -57.25000000      15.72360311       5.00000000       1.00000000  F       0.50000000       0.00000000      -0.00000000       0.00000000 
H     -57.75000000      16.58962852       5.00000000       1.00000000  F       0.60000000       0.00000000       0.00000000       0.00000000 
H     -57.25000000      17.45565392       5.00000000       1.00000000  T       0.50000000       0.00000000      -0.00000000       0.00000000 
H     -56.75000000     -17.45565392       5.00000000       1.00000000  T       0.40000000       0.00000000       0.00000000       0.00000000 
H     -56.25000000     -16.58962852       5.00000000       1.00000000  F       0.30000000       0.00000000       0.00000000       0.00000000 
H     -56.75000000     -15.72360311       5.00000000       1.00000000  F       0.40000000       0.00000000       0.00000000       0.00000000 
H     -56.25000000     -14.85757771       5.00000000       1.00000000  F       0.30000000       0.00000000      -0.00000000       0.00000000 
H     -56.75000000     -13.99155231       5.00000000       1.00000000  F       0.40000000       0.00000000      -0.00000000       0.00000000 
H     -56.25000000     -13.12552690       5.00000000       1.00000000  F       0.30000000       0.00000000       0.00000000       0.00000000 
H     -56.75000000     -12.25950150       5.00000000       1.00000000  F       0.40000000       0.00000000      -0.00000000       0.00000000 
H     -56.25000000     -11.39347610       5.00000000       1.00000000  F       0.30000000       0.00000000       0.00000000       0.00000000 
H     -56.75000000     -10.52745069       5.00000000       1.00000000  F       0.40000000       0.00000000      -0.00000000       0.00000000 
H     -56.25000000      -9.66142529       5.00000000       1.00000000  F       0.30000000       0.00000000       0.00000000       0.00000000 
H     -56.75000000      -8.79539988       5.00000000       1.00000000  F       0.40000000       0.00000000       0.00000000       0.00000000 
H     -56.25000000      -7.92937448       5.00000000       1.00000000  F       0.30000000       0.00000000      -0.00000000       0.00000000 
H     -56.75000000      -7.06334908       5.00000000       1.00000000  F       0.40000000       0.00000000       0.00000000       0.00000000 
H     -56.25000000      -6.19732367       5.00000000       1.00000000  F       0.30000000       0.00000000      -0.00000000       0.00000000 
H     -56.75000000      -5.33129827       5.00000000       1.00000000  F       0.40000000       0.00000000       0.00000000       0.00000000 
H     -56.25000000      -4.46527287       5.00000000       1.00000000  F       0.30000000       0.00000000      -0.00000000       0.00000000 
H     -56.75000000      -3.59924746       5.00000000       1.00000000  F       0.40000000       0.00000000       0.00000000       0.00000000 
H     -56.25000000      -2.73322206       5.00000000       1.00000000  F       0.30000000       0.00000000      -0.00000000       0.00000000 
H     -56.75000000      -1.86719665       5.00000000       1.00000000  F       0.40000000       0.00000000       0.00000000       0.00000000 
H     -56.25000000      -1.00117125       5.00000000       1.00000000  F       0.30000000       0.00000000      -0.00000000       0.00000000 
H     -56.75000000       1.00117125       5.00000000       1.00000000  F       0.40000000       0.00000000       0.00000000       0.00000000 
H     -56.25000000       1.86719665       5.00000000       1.00000000  F       0.30000000       0.00000000       0.00000000       0.00000000 
H     -56.75000000       2.73322206       5.00000000       1.00000000  F       0.40000000       0.00000000      -0.00000000       0.00000000 
H     -56.25000000       3.59924746       5.00000000       1.00000000  F       0.30000000       0.00000000       0.00000000       0.00000000 
H     -56.75000000       4.46527287       5.00000000       1.00000000  F       0.40000000       0.00000000      -0.00000000       0.00000000 
H     -56.25000000       5.33129827       5.00000000       1.00000000  F       0.30000000       0.00000000       0.00000000       0.00000000 
H     -56.75000000       6.19732367       5.00000000       1.00000000  F       0.40000000       0.00000000       0.00000000       0.00000000 
H     -56.25000000       7.06334908       5.00000000       1.00000000  F       0.30000000       0.00000000       0.00000000       0.00000000 
H     -56.75000000       7.92937448       5.00000000       1.00000000  F       0.40000000       0.00000000      -0.00000000       0.00000000 
H     -56.25000000       8.79539988       5.00000000       1.00000000  F       0.30000000       0.00000000       0.00000000       0.00000000 
H     -56.75000000       9.66142529       5.00000000       1.00000000  F       0.40000000       0.00000000      -0.00000000       0.00000000 
H     -56.25000000      10.52745069       5.00000000       1.00000000  F       0.30000000       0.00000000       0.00000000       0.00000000 
H     -56.75000000      11.39347610       5.00000000       1.00000000  F       0.40000000       0.00000000      -0.00000000       0.00000000 
H     -56.25000000      12.25950150       5.00000000       1.00000000  F       0.30000000       0.00000000       0.00000000       0.00000000 
H     -56.75000000      13.12552690       5.00000000       1.00000000  F       0.40000000       0.00000000      -0.00000000       0.00000000 
H     -56.25000000      13.99155231       5.00000000       1.00000000  F       0.30000000       0.00000000       0.00000000       0.00000000 
H     -56.75000000      14.85757771       5.00000000       1.00000000  F       0.40000000       0.00000000       0.00000000       0.00000000 
H     -56.25000000      15.72360311       5.00000000       1.00000000  F       0.30000000       0.00000000      -0.00000000       0.00000000 
H     -56.75000000      16.58962852       5.00000000       1.00000000  F       0.40000000       0.00000000       0.00000000       0.00000000 
H     -56.25000000      17.45565392       5.00000000       1.00000000  T       0.30000000       0.00000000      -0.00000000       0.00000000 
H     -55.75000000     -17.45565392       5.00000000       1.00000000  T       0.20000000       0.00000000       0.00000000       0.00000000 
H     -55.25000000     -16.58962852       5.00000000       1.00000000  F       0.10000000       0.00000000       0.00000000       0.00000000 
H     -55.75000000     -15.72360311       5.00000000       1.00000000  F       0.20000000       0.00000000       0.00000000       0.00000000 
H     -55.25000000     -14.85757771       5.00000000       1.00000000  F       0.10000000       0.00000000      -0.00000000       0.00000000 
H     -55.75000000     -13.99155231       5.00000000       1.00000000  F       0.20000000       0.00000000      -0.00000000       0.00000000 
H     -55.25000000     -13.12552690       5.00000000       1.00000000  F       0.10000000       0.00000000       0.00000000       0.00000000 
H     -55.75000000     -12.25950150       5.00000000       1.00000000  F       0.20000000       0.00000000      -0.00000000       0.00000000 
H     -55.25000000     -11.39347610       5.00000000       1.00000000  F       0.10000000       0.00000000       0.00000000       0.00000000 
H     -55.75000000     -10.52745069       5.00000000       1.00000000  F       0.20000000       0.00000000      -0.00000000       0.00000000 
H     -55.25000000      -9.66142529       5.00000000       1.00000000  F       0.10000000       0.00000000       0.00000000       0.00000000 
H     -55.75000000      -8.79539988       5.00000000       1.00000000  F       0.20000000       0.00000000       0.00000000       0.00000000 
H     -55.25000000      -7.92937448       5.00000000       1.00000000  F       0.10000000       0.00000000      -0.00000000       0.00000000 
H     -55.75000000      -7.06334908       5.00000000       1.00000000  F       0.20000000       0.00000000       0.00000000       0.00000000 
H     -55.25000000      -6.19732367       5.00000000       1.00000000  F       0.10000000       0.00000000      -0.00000000       0.00000000 
H     -55.75000000      -5.33129827       5.00000000       1.00000000  F       0.20000000       0.00000000       0.00000000       0.00000000 
H     -55.25000000      -4.46527287       5.00000000       1.00000000  F       0.10000000       0.00000000      -0.00000000       0.00000000 
H     -55.75000000      -3.59924746       5.00000000       1.00000000  F       0.20000000       0.00000000       0.00000000       0.00000000 
H     -55.25000000      -2.73322206       5.00000000       1.00000000  F       0.10000000       0.00000000      -0.00000000       0.00000000 
H     -55.75000000      -1.86719665       5.00000000       1.00000000  F       0.20000000       0.00000000       0.00000000       0.00000000 
H     -55.25000000      -1.00117125       5.00000000       1.00000000  F       0.10000000       0.00000000      -0.00000000       0.00000000 
H     -55.75000000       1.00117125       5.00000000       1.00000000  F       0.20000000       0.00000000       0.00000000       0.00000000 
H     -55.25000000       1.86719665       5.00000000       1.00000000  F       0.10000000       0.00000000       0.00000000       0.00000000 
H     -55.75000000       2.73322206       5.00000000       1.00000000  F       0.20000000       0.00000000      -0.00000000       0.00000000 
H     -55.25000000       3.59924746       5.00000000       1.00000000  F       0.10000000       0.00000000       0.00000000       0.00000000 
H     -55.75000000       4.46527287       5.00000000       1.00000000  F       0.20000000       0.00000000      -0.00000000       0.00000000 
H     -55.25000000       5.33129827       5.00000000       1.00000000  F       0.10000000       0.00000000       0.00000000       0.00000000 
H     -55.75000000       6.19732367       5.00000000       1.00000000  F       0.20000000       0.00000000       0.00000000       0.00000000 
H     -55.25000000       7.06334908       5.00000000       1.00000000  F       0.10000000       0.00000000       0.00000000       0.00000000 
H     -55.75000000       7.92937448       5.00000000       1.00000000  F       0.20000000       0.00000000      -0.00000000       0.00000000 
H     -55.25000000       8.79539988       5.00000000       1.00000000  F       0.10000000       0.00000000       0.00000000       0.00000000 
H     -55.75000000       9.66142529       5.00000000       1.00000000  F       0.20000000       0.00000000      -0.00000000       0.00000000 
H     -55.25000000      10.52745069       5.00000000       1.00000000  F       0.10000000       0.00000000       0.00000000       0.00000000 
H     -55.75000000      11.39347610       5.00000000       1.00000000  F       0.20000000       0.00000000      -0.00000000       0.00000000 
H     -55.25000000      12.25950150       5.00000000       1.00000000  F       0.10000000       0.00000000       0.00000000       0.00000000 
H     -55.75000000      13.12552690       5.00000000       1.00000000  F       0.20000000       0.00000000      -0.00000000       0.00000000 
H     -55.25000000      13.99155231       5.00000000       1.00000000  F       0.10000000       0.00000000       0.00000000       0.00000000 
H     -55.75000000      14.85757771       5.00000000       1.00000000  F       0.20000000       0.00000000       0.00000000       0.00000000 
H     -55.25000000      15.72360311       5.00000000       1.00000000  F       0.10000000       0.00000000      -0.00000000       0.00000000 
H     -55.75000000      16.58962852       5.00000000       1.00000000  F       0.20000000       0.00000000       0.00000000       0.00000000 
H     -55.25000000      17.45565392       5.00000000       1.00000000  T       0.10000000       0.00000000      -0.00000000       0.00000000 
H     -54.75000000     -17.45565392       5.00000000       1.00000000  T       0.00000000      -0.00000000       0.00000000       0.00000000 
H     -54.25000000     -16.58962852       5.00000000       1.00000000  F       0.00000000      -0.00000000      -0.00000000       0.00000000 
H     -54.75000000     -15.72360311       5.00000000       1.00000000  F       0.00000000      -0.00000000       0.00000000       0.00000000 
H     -54.25000000     -14.85757771       5.00000000       1.00000000  F       0.00000000      -0.00000000      -0.00000000       0.00000000 
H     -54.75000000     -13.99155231       5.00000000       1.00000000  F       0.00000000      -0.00000000      -0.00000000       0.00000000 
H     -54.25000000     -13.12552690       5.00000000       1.00000000  F       0.00000000      -0.00000000       0.00000000       0.00000000 
H     -54.75000000     -12.25950150       5.00000000       1.00000000  F       0.00000000      -0.00000000      -0.00000000       0.00000000 
H     -54.25000000     -11.39347610       5.00000000       1.00000000  F       0.00000000      -0.00000000       0.00000000       0.00000000 